+ 0.5 0 1 tcp 40 ------- 0 0.0 1.0 0 0
- 0.5 0 1 tcp 40 ------- 0 0.0 1.0 0 0
+ 0.5 0 1 cbr 500 ------- 1 0.1 1.1 0 1
- 0.500064 0 1 cbr 500 ------- 1 0.1 1.1 0 1
+ 0.501 0 1 cbr 500 ------- 1 0.1 1.1 1 2
- 0.501 0 1 cbr 500 ------- 1 0.1 1.1 1 2
+ 0.502 0 1 cbr 500 ------- 1 0.1 1.1 2 3
- 0.502 0 1 cbr 500 ------- 1 0.1 1.1 2 3
+ 0.503 0 1 cbr 500 ------- 1 0.1 1.1 3 4
- 0.503 0 1 cbr 500 ------- 1 0.1 1.1 3 4
+ 0.504 0 1 cbr 500 ------- 1 0.1 1.1 4 5
- 0.504 0 1 cbr 500 ------- 1 0.1 1.1 4 5
+ 0.505 0 1 cbr 500 ------- 1 0.1 1.1 5 6
- 0.505 0 1 cbr 500 ------- 1 0.1 1.1 5 6
+ 0.506 0 1 cbr 500 ------- 1 0.1 1.1 6 7
- 0.506 0 1 cbr 500 ------- 1 0.1 1.1 6 7
+ 0.507 0 1 cbr 500 ------- 1 0.1 1.1 7 8
- 0.507 0 1 cbr 500 ------- 1 0.1 1.1 7 8
+ 0.508 0 1 cbr 500 ------- 1 0.1 1.1 8 9
- 0.508 0 1 cbr 500 ------- 1 0.1 1.1 8 9
+ 0.509 0 1 cbr 500 ------- 1 0.1 1.1 9 10
- 0.509 0 1 cbr 500 ------- 1 0.1 1.1 9 10
+ 0.51 0 1 cbr 500 ------- 1 0.1 1.1 10 11
- 0.51 0 1 cbr 500 ------- 1 0.1 1.1 10 11
+ 0.511 0 1 cbr 500 ------- 1 0.1 1.1 11 12
- 0.511 0 1 cbr 500 ------- 1 0.1 1.1 11 12
+ 0.512 0 1 cbr 500 ------- 1 0.1 1.1 12 13
- 0.512 0 1 cbr 500 ------- 1 0.1 1.1 12 13
+ 0.513 0 1 cbr 500 ------- 1 0.1 1.1 13 14
- 0.513 0 1 cbr 500 ------- 1 0.1 1.1 13 14
+ 0.514 0 1 cbr 500 ------- 1 0.1 1.1 14 15
- 0.514 0 1 cbr 500 ------- 1 0.1 1.1 14 15
+ 0.515 0 1 cbr 500 ------- 1 0.1 1.1 15 16
- 0.515 0 1 cbr 500 ------- 1 0.1 1.1 15 16
+ 0.516 0 1 cbr 500 ------- 1 0.1 1.1 16 17
- 0.516 0 1 cbr 500 ------- 1 0.1 1.1 16 17
+ 0.517 0 1 cbr 500 ------- 1 0.1 1.1 17 18
- 0.517 0 1 cbr 500 ------- 1 0.1 1.1 17 18
+ 0.518 0 1 cbr 500 ------- 1 0.1 1.1 18 19
- 0.518 0 1 cbr 500 ------- 1 0.1 1.1 18 19
+ 0.519 0 1 cbr 500 ------- 1 0.1 1.1 19 20
- 0.519 0 1 cbr 500 ------- 1 0.1 1.1 19 20
+ 0.52 0 1 cbr 500 ------- 1 0.1 1.1 20 21
- 0.52 0 1 cbr 500 ------- 1 0.1 1.1 20 21
+ 0.521 0 1 cbr 500 ------- 1 0.1 1.1 21 22
- 0.521 0 1 cbr 500 ------- 1 0.1 1.1 21 22
+ 0.522 0 1 cbr 500 ------- 1 0.1 1.1 22 23
- 0.522 0 1 cbr 500 ------- 1 0.1 1.1 22 23
+ 0.523 0 1 cbr 500 ------- 1 0.1 1.1 23 24
- 0.523 0 1 cbr 500 ------- 1 0.1 1.1 23 24
+ 0.524 0 1 cbr 500 ------- 1 0.1 1.1 24 25
- 0.524 0 1 cbr 500 ------- 1 0.1 1.1 24 25
+ 0.525 0 1 cbr 500 ------- 1 0.1 1.1 25 26
- 0.525 0 1 cbr 500 ------- 1 0.1 1.1 25 26
+ 0.526 0 1 cbr 500 ------- 1 0.1 1.1 26 27
- 0.526 0 1 cbr 500 ------- 1 0.1 1.1 26 27
+ 0.527 0 1 cbr 500 ------- 1 0.1 1.1 27 28
- 0.527 0 1 cbr 500 ------- 1 0.1 1.1 27 28
+ 0.528 0 1 cbr 500 ------- 1 0.1 1.1 28 29
- 0.528 0 1 cbr 500 ------- 1 0.1 1.1 28 29
+ 0.529 0 1 cbr 500 ------- 1 0.1 1.1 29 30
- 0.529 0 1 cbr 500 ------- 1 0.1 1.1 29 30
+ 0.53 0 1 cbr 500 ------- 1 0.1 1.1 30 31
- 0.53 0 1 cbr 500 ------- 1 0.1 1.1 30 31
+ 0.531 0 1 cbr 500 ------- 1 0.1 1.1 31 32
- 0.531 0 1 cbr 500 ------- 1 0.1 1.1 31 32
+ 0.532 0 1 cbr 500 ------- 1 0.1 1.1 32 33
- 0.532 0 1 cbr 500 ------- 1 0.1 1.1 32 33
+ 0.533 0 1 cbr 500 ------- 1 0.1 1.1 33 34
- 0.533 0 1 cbr 500 ------- 1 0.1 1.1 33 34
+ 0.534 0 1 cbr 500 ------- 1 0.1 1.1 34 35
- 0.534 0 1 cbr 500 ------- 1 0.1 1.1 34 35
+ 0.535 0 1 cbr 500 ------- 1 0.1 1.1 35 36
- 0.535 0 1 cbr 500 ------- 1 0.1 1.1 35 36
+ 0.536 0 1 cbr 500 ------- 1 0.1 1.1 36 37
- 0.536 0 1 cbr 500 ------- 1 0.1 1.1 36 37
+ 0.537 0 1 cbr 500 ------- 1 0.1 1.1 37 38
- 0.537 0 1 cbr 500 ------- 1 0.1 1.1 37 38
+ 0.538 0 1 cbr 500 ------- 1 0.1 1.1 38 39
- 0.538 0 1 cbr 500 ------- 1 0.1 1.1 38 39
+ 0.539 0 1 cbr 500 ------- 1 0.1 1.1 39 40
- 0.539 0 1 cbr 500 ------- 1 0.1 1.1 39 40
+ 0.54 0 1 cbr 500 ------- 1 0.1 1.1 40 41
- 0.54 0 1 cbr 500 ------- 1 0.1 1.1 40 41
+ 0.541 0 1 cbr 500 ------- 1 0.1 1.1 41 42
- 0.541 0 1 cbr 500 ------- 1 0.1 1.1 41 42
+ 0.542 0 1 cbr 500 ------- 1 0.1 1.1 42 43
- 0.542 0 1 cbr 500 ------- 1 0.1 1.1 42 43
+ 0.543 0 1 cbr 500 ------- 1 0.1 1.1 43 44
- 0.543 0 1 cbr 500 ------- 1 0.1 1.1 43 44
+ 0.544 0 1 cbr 500 ------- 1 0.1 1.1 44 45
- 0.544 0 1 cbr 500 ------- 1 0.1 1.1 44 45
+ 0.545 0 1 cbr 500 ------- 1 0.1 1.1 45 46
- 0.545 0 1 cbr 500 ------- 1 0.1 1.1 45 46
+ 0.546 0 1 cbr 500 ------- 1 0.1 1.1 46 47
- 0.546 0 1 cbr 500 ------- 1 0.1 1.1 46 47
+ 0.547 0 1 cbr 500 ------- 1 0.1 1.1 47 48
- 0.547 0 1 cbr 500 ------- 1 0.1 1.1 47 48
+ 0.548 0 1 cbr 500 ------- 1 0.1 1.1 48 49
- 0.548 0 1 cbr 500 ------- 1 0.1 1.1 48 49
+ 0.549 0 1 cbr 500 ------- 1 0.1 1.1 49 50
- 0.549 0 1 cbr 500 ------- 1 0.1 1.1 49 50
+ 0.55 0 1 cbr 500 ------- 1 0.1 1.1 50 51
- 0.55 0 1 cbr 500 ------- 1 0.1 1.1 50 51
+ 0.551 0 1 cbr 500 ------- 1 0.1 1.1 51 52
- 0.551 0 1 cbr 500 ------- 1 0.1 1.1 51 52
+ 0.552 0 1 cbr 500 ------- 1 0.1 1.1 52 53
- 0.552 0 1 cbr 500 ------- 1 0.1 1.1 52 53
+ 0.553 0 1 cbr 500 ------- 1 0.1 1.1 53 54
- 0.553 0 1 cbr 500 ------- 1 0.1 1.1 53 54
+ 0.554 0 1 cbr 500 ------- 1 0.1 1.1 54 55
- 0.554 0 1 cbr 500 ------- 1 0.1 1.1 54 55
+ 0.555 0 1 cbr 500 ------- 1 0.1 1.1 55 56
- 0.555 0 1 cbr 500 ------- 1 0.1 1.1 55 56
+ 0.556 0 1 cbr 500 ------- 1 0.1 1.1 56 57
- 0.556 0 1 cbr 500 ------- 1 0.1 1.1 56 57
+ 0.557 0 1 cbr 500 ------- 1 0.1 1.1 57 58
- 0.557 0 1 cbr 500 ------- 1 0.1 1.1 57 58
+ 0.558 0 1 cbr 500 ------- 1 0.1 1.1 58 59
- 0.558 0 1 cbr 500 ------- 1 0.1 1.1 58 59
+ 0.559 0 1 cbr 500 ------- 1 0.1 1.1 59 60
- 0.559 0 1 cbr 500 ------- 1 0.1 1.1 59 60
+ 0.56 0 1 cbr 500 ------- 1 0.1 1.1 60 61
- 0.56 0 1 cbr 500 ------- 1 0.1 1.1 60 61
+ 0.561 0 1 cbr 500 ------- 1 0.1 1.1 61 62
- 0.561 0 1 cbr 500 ------- 1 0.1 1.1 61 62
+ 0.562 0 1 cbr 500 ------- 1 0.1 1.1 62 63
- 0.562 0 1 cbr 500 ------- 1 0.1 1.1 62 63
+ 0.563 0 1 cbr 500 ------- 1 0.1 1.1 63 64
- 0.563 0 1 cbr 500 ------- 1 0.1 1.1 63 64
+ 0.564 0 1 cbr 500 ------- 1 0.1 1.1 64 65
- 0.564 0 1 cbr 500 ------- 1 0.1 1.1 64 65
+ 0.565 0 1 cbr 500 ------- 1 0.1 1.1 65 66
- 0.565 0 1 cbr 500 ------- 1 0.1 1.1 65 66
+ 0.566 0 1 cbr 500 ------- 1 0.1 1.1 66 67
- 0.566 0 1 cbr 500 ------- 1 0.1 1.1 66 67
+ 0.567 0 1 cbr 500 ------- 1 0.1 1.1 67 68
- 0.567 0 1 cbr 500 ------- 1 0.1 1.1 67 68
+ 0.568 0 1 cbr 500 ------- 1 0.1 1.1 68 69
- 0.568 0 1 cbr 500 ------- 1 0.1 1.1 68 69
+ 0.569 0 1 cbr 500 ------- 1 0.1 1.1 69 70
- 0.569 0 1 cbr 500 ------- 1 0.1 1.1 69 70
+ 0.57 0 1 cbr 500 ------- 1 0.1 1.1 70 71
- 0.57 0 1 cbr 500 ------- 1 0.1 1.1 70 71
+ 0.571 0 1 cbr 500 ------- 1 0.1 1.1 71 72
- 0.571 0 1 cbr 500 ------- 1 0.1 1.1 71 72
+ 0.572 0 1 cbr 500 ------- 1 0.1 1.1 72 73
- 0.572 0 1 cbr 500 ------- 1 0.1 1.1 72 73
+ 0.573 0 1 cbr 500 ------- 1 0.1 1.1 73 74
- 0.573 0 1 cbr 500 ------- 1 0.1 1.1 73 74
+ 0.574 0 1 cbr 500 ------- 1 0.1 1.1 74 75
- 0.574 0 1 cbr 500 ------- 1 0.1 1.1 74 75
+ 0.575 0 1 cbr 500 ------- 1 0.1 1.1 75 76
- 0.575 0 1 cbr 500 ------- 1 0.1 1.1 75 76
+ 0.576 0 1 cbr 500 ------- 1 0.1 1.1 76 77
- 0.576 0 1 cbr 500 ------- 1 0.1 1.1 76 77
+ 0.577 0 1 cbr 500 ------- 1 0.1 1.1 77 78
- 0.577 0 1 cbr 500 ------- 1 0.1 1.1 77 78
+ 0.578 0 1 cbr 500 ------- 1 0.1 1.1 78 79
- 0.578 0 1 cbr 500 ------- 1 0.1 1.1 78 79
+ 0.579 0 1 cbr 500 ------- 1 0.1 1.1 79 80
- 0.579 0 1 cbr 500 ------- 1 0.1 1.1 79 80
+ 0.58 0 1 cbr 500 ------- 1 0.1 1.1 80 81
- 0.58 0 1 cbr 500 ------- 1 0.1 1.1 80 81
+ 0.581 0 1 cbr 500 ------- 1 0.1 1.1 81 82
- 0.581 0 1 cbr 500 ------- 1 0.1 1.1 81 82
+ 0.582 0 1 cbr 500 ------- 1 0.1 1.1 82 83
- 0.582 0 1 cbr 500 ------- 1 0.1 1.1 82 83
+ 0.583 0 1 cbr 500 ------- 1 0.1 1.1 83 84
- 0.583 0 1 cbr 500 ------- 1 0.1 1.1 83 84
+ 0.584 0 1 cbr 500 ------- 1 0.1 1.1 84 85
- 0.584 0 1 cbr 500 ------- 1 0.1 1.1 84 85
+ 0.585 0 1 cbr 500 ------- 1 0.1 1.1 85 86
- 0.585 0 1 cbr 500 ------- 1 0.1 1.1 85 86
+ 0.586 0 1 cbr 500 ------- 1 0.1 1.1 86 87
- 0.586 0 1 cbr 500 ------- 1 0.1 1.1 86 87
+ 0.587 0 1 cbr 500 ------- 1 0.1 1.1 87 88
- 0.587 0 1 cbr 500 ------- 1 0.1 1.1 87 88
+ 0.588 0 1 cbr 500 ------- 1 0.1 1.1 88 89
- 0.588 0 1 cbr 500 ------- 1 0.1 1.1 88 89
+ 0.589 0 1 cbr 500 ------- 1 0.1 1.1 89 90
- 0.589 0 1 cbr 500 ------- 1 0.1 1.1 89 90
+ 0.59 0 1 cbr 500 ------- 1 0.1 1.1 90 91
- 0.59 0 1 cbr 500 ------- 1 0.1 1.1 90 91
+ 0.591 0 1 cbr 500 ------- 1 0.1 1.1 91 92
- 0.591 0 1 cbr 500 ------- 1 0.1 1.1 91 92
+ 0.592 0 1 cbr 500 ------- 1 0.1 1.1 92 93
- 0.592 0 1 cbr 500 ------- 1 0.1 1.1 92 93
+ 0.593 0 1 cbr 500 ------- 1 0.1 1.1 93 94
- 0.593 0 1 cbr 500 ------- 1 0.1 1.1 93 94
+ 0.594 0 1 cbr 500 ------- 1 0.1 1.1 94 95
- 0.594 0 1 cbr 500 ------- 1 0.1 1.1 94 95
+ 0.595 0 1 cbr 500 ------- 1 0.1 1.1 95 96
- 0.595 0 1 cbr 500 ------- 1 0.1 1.1 95 96
+ 0.596 0 1 cbr 500 ------- 1 0.1 1.1 96 97
- 0.596 0 1 cbr 500 ------- 1 0.1 1.1 96 97
+ 0.597 0 1 cbr 500 ------- 1 0.1 1.1 97 98
- 0.597 0 1 cbr 500 ------- 1 0.1 1.1 97 98
+ 0.598 0 1 cbr 500 ------- 1 0.1 1.1 98 99
- 0.598 0 1 cbr 500 ------- 1 0.1 1.1 98 99
+ 0.599 0 1 cbr 500 ------- 1 0.1 1.1 99 100
- 0.599 0 1 cbr 500 ------- 1 0.1 1.1 99 100
+ 0.6 0 1 cbr 500 ------- 1 0.1 1.1 100 101
- 0.6 0 1 cbr 500 ------- 1 0.1 1.1 100 101
r 0.600064 0 1 tcp 40 ------- 0 0.0 1.0 0 0
+ 0.600064 1 0 ack 40 ------- 0 1.0 0.0 0 102
- 0.600064 1 0 ack 40 ------- 0 1.0 0.0 0 102
r 0.600864 0 1 cbr 500 ------- 1 0.1 1.1 0 1
+ 0.601 0 1 cbr 500 ------- 1 0.1 1.1 101 103
- 0.601 0 1 cbr 500 ------- 1 0.1 1.1 101 103
r 0.6018 0 1 cbr 500 ------- 1 0.1 1.1 1 2
+ 0.602 0 1 cbr 500 ------- 1 0.1 1.1 102 104
- 0.602 0 1 cbr 500 ------- 1 0.1 1.1 102 104
r 0.6028 0 1 cbr 500 ------- 1 0.1 1.1 2 3
+ 0.603 0 1 cbr 500 ------- 1 0.1 1.1 103 105
- 0.603 0 1 cbr 500 ------- 1 0.1 1.1 103 105
r 0.6038 0 1 cbr 500 ------- 1 0.1 1.1 3 4
+ 0.604 0 1 cbr 500 ------- 1 0.1 1.1 104 106
- 0.604 0 1 cbr 500 ------- 1 0.1 1.1 104 106
r 0.6048 0 1 cbr 500 ------- 1 0.1 1.1 4 5
+ 0.605 0 1 cbr 500 ------- 1 0.1 1.1 105 107
- 0.605 0 1 cbr 500 ------- 1 0.1 1.1 105 107
r 0.6058 0 1 cbr 500 ------- 1 0.1 1.1 5 6
+ 0.606 0 1 cbr 500 ------- 1 0.1 1.1 106 108
- 0.606 0 1 cbr 500 ------- 1 0.1 1.1 106 108
r 0.6068 0 1 cbr 500 ------- 1 0.1 1.1 6 7
+ 0.607 0 1 cbr 500 ------- 1 0.1 1.1 107 109
- 0.607 0 1 cbr 500 ------- 1 0.1 1.1 107 109
r 0.6078 0 1 cbr 500 ------- 1 0.1 1.1 7 8
+ 0.608 0 1 cbr 500 ------- 1 0.1 1.1 108 110
- 0.608 0 1 cbr 500 ------- 1 0.1 1.1 108 110
r 0.6088 0 1 cbr 500 ------- 1 0.1 1.1 8 9
+ 0.609 0 1 cbr 500 ------- 1 0.1 1.1 109 111
- 0.609 0 1 cbr 500 ------- 1 0.1 1.1 109 111
r 0.6098 0 1 cbr 500 ------- 1 0.1 1.1 9 10
+ 0.61 0 1 cbr 500 ------- 1 0.1 1.1 110 112
- 0.61 0 1 cbr 500 ------- 1 0.1 1.1 110 112
r 0.6108 0 1 cbr 500 ------- 1 0.1 1.1 10 11
+ 0.611 0 1 cbr 500 ------- 1 0.1 1.1 111 113
- 0.611 0 1 cbr 500 ------- 1 0.1 1.1 111 113
r 0.6118 0 1 cbr 500 ------- 1 0.1 1.1 11 12
+ 0.612 0 1 cbr 500 ------- 1 0.1 1.1 112 114
- 0.612 0 1 cbr 500 ------- 1 0.1 1.1 112 114
r 0.6128 0 1 cbr 500 ------- 1 0.1 1.1 12 13
+ 0.613 0 1 cbr 500 ------- 1 0.1 1.1 113 115
- 0.613 0 1 cbr 500 ------- 1 0.1 1.1 113 115
r 0.6138 0 1 cbr 500 ------- 1 0.1 1.1 13 14
+ 0.614 0 1 cbr 500 ------- 1 0.1 1.1 114 116
- 0.614 0 1 cbr 500 ------- 1 0.1 1.1 114 116
r 0.6148 0 1 cbr 500 ------- 1 0.1 1.1 14 15
+ 0.615 0 1 cbr 500 ------- 1 0.1 1.1 115 117
- 0.615 0 1 cbr 500 ------- 1 0.1 1.1 115 117
r 0.6158 0 1 cbr 500 ------- 1 0.1 1.1 15 16
+ 0.616 0 1 cbr 500 ------- 1 0.1 1.1 116 118
- 0.616 0 1 cbr 500 ------- 1 0.1 1.1 116 118
r 0.6168 0 1 cbr 500 ------- 1 0.1 1.1 16 17
+ 0.617 0 1 cbr 500 ------- 1 0.1 1.1 117 119
- 0.617 0 1 cbr 500 ------- 1 0.1 1.1 117 119
r 0.6178 0 1 cbr 500 ------- 1 0.1 1.1 17 18
+ 0.618 0 1 cbr 500 ------- 1 0.1 1.1 118 120
- 0.618 0 1 cbr 500 ------- 1 0.1 1.1 118 120
r 0.6188 0 1 cbr 500 ------- 1 0.1 1.1 18 19
+ 0.619 0 1 cbr 500 ------- 1 0.1 1.1 119 121
- 0.619 0 1 cbr 500 ------- 1 0.1 1.1 119 121
r 0.6198 0 1 cbr 500 ------- 1 0.1 1.1 19 20
+ 0.62 0 1 cbr 500 ------- 1 0.1 1.1 120 122
- 0.62 0 1 cbr 500 ------- 1 0.1 1.1 120 122
r 0.6208 0 1 cbr 500 ------- 1 0.1 1.1 20 21
+ 0.621 0 1 cbr 500 ------- 1 0.1 1.1 121 123
- 0.621 0 1 cbr 500 ------- 1 0.1 1.1 121 123
r 0.6218 0 1 cbr 500 ------- 1 0.1 1.1 21 22
+ 0.622 0 1 cbr 500 ------- 1 0.1 1.1 122 124
- 0.622 0 1 cbr 500 ------- 1 0.1 1.1 122 124
r 0.6228 0 1 cbr 500 ------- 1 0.1 1.1 22 23
+ 0.623 0 1 cbr 500 ------- 1 0.1 1.1 123 125
- 0.623 0 1 cbr 500 ------- 1 0.1 1.1 123 125
r 0.6238 0 1 cbr 500 ------- 1 0.1 1.1 23 24
+ 0.624 0 1 cbr 500 ------- 1 0.1 1.1 124 126
- 0.624 0 1 cbr 500 ------- 1 0.1 1.1 124 126
r 0.6248 0 1 cbr 500 ------- 1 0.1 1.1 24 25
+ 0.625 0 1 cbr 500 ------- 1 0.1 1.1 125 127
- 0.625 0 1 cbr 500 ------- 1 0.1 1.1 125 127
r 0.6258 0 1 cbr 500 ------- 1 0.1 1.1 25 26
+ 0.626 0 1 cbr 500 ------- 1 0.1 1.1 126 128
- 0.626 0 1 cbr 500 ------- 1 0.1 1.1 126 128
r 0.6268 0 1 cbr 500 ------- 1 0.1 1.1 26 27
+ 0.627 0 1 cbr 500 ------- 1 0.1 1.1 127 129
- 0.627 0 1 cbr 500 ------- 1 0.1 1.1 127 129
r 0.6278 0 1 cbr 500 ------- 1 0.1 1.1 27 28
+ 0.628 0 1 cbr 500 ------- 1 0.1 1.1 128 130
- 0.628 0 1 cbr 500 ------- 1 0.1 1.1 128 130
r 0.6288 0 1 cbr 500 ------- 1 0.1 1.1 28 29
+ 0.629 0 1 cbr 500 ------- 1 0.1 1.1 129 131
- 0.629 0 1 cbr 500 ------- 1 0.1 1.1 129 131
r 0.6298 0 1 cbr 500 ------- 1 0.1 1.1 29 30
+ 0.63 0 1 cbr 500 ------- 1 0.1 1.1 130 132
- 0.63 0 1 cbr 500 ------- 1 0.1 1.1 130 132
r 0.6308 0 1 cbr 500 ------- 1 0.1 1.1 30 31
+ 0.631 0 1 cbr 500 ------- 1 0.1 1.1 131 133
- 0.631 0 1 cbr 500 ------- 1 0.1 1.1 131 133
r 0.6318 0 1 cbr 500 ------- 1 0.1 1.1 31 32
+ 0.632 0 1 cbr 500 ------- 1 0.1 1.1 132 134
- 0.632 0 1 cbr 500 ------- 1 0.1 1.1 132 134
r 0.6328 0 1 cbr 500 ------- 1 0.1 1.1 32 33
+ 0.633 0 1 cbr 500 ------- 1 0.1 1.1 133 135
- 0.633 0 1 cbr 500 ------- 1 0.1 1.1 133 135
r 0.6338 0 1 cbr 500 ------- 1 0.1 1.1 33 34
+ 0.634 0 1 cbr 500 ------- 1 0.1 1.1 134 136
- 0.634 0 1 cbr 500 ------- 1 0.1 1.1 134 136
r 0.6348 0 1 cbr 500 ------- 1 0.1 1.1 34 35
+ 0.635 0 1 cbr 500 ------- 1 0.1 1.1 135 137
- 0.635 0 1 cbr 500 ------- 1 0.1 1.1 135 137
r 0.6358 0 1 cbr 500 ------- 1 0.1 1.1 35 36
+ 0.636 0 1 cbr 500 ------- 1 0.1 1.1 136 138
- 0.636 0 1 cbr 500 ------- 1 0.1 1.1 136 138
r 0.6368 0 1 cbr 500 ------- 1 0.1 1.1 36 37
+ 0.637 0 1 cbr 500 ------- 1 0.1 1.1 137 139
- 0.637 0 1 cbr 500 ------- 1 0.1 1.1 137 139
r 0.6378 0 1 cbr 500 ------- 1 0.1 1.1 37 38
+ 0.638 0 1 cbr 500 ------- 1 0.1 1.1 138 140
- 0.638 0 1 cbr 500 ------- 1 0.1 1.1 138 140
r 0.6388 0 1 cbr 500 ------- 1 0.1 1.1 38 39
+ 0.639 0 1 cbr 500 ------- 1 0.1 1.1 139 141
- 0.639 0 1 cbr 500 ------- 1 0.1 1.1 139 141
r 0.6398 0 1 cbr 500 ------- 1 0.1 1.1 39 40
+ 0.64 0 1 cbr 500 ------- 1 0.1 1.1 140 142
- 0.64 0 1 cbr 500 ------- 1 0.1 1.1 140 142
r 0.6408 0 1 cbr 500 ------- 1 0.1 1.1 40 41
+ 0.641 0 1 cbr 500 ------- 1 0.1 1.1 141 143
- 0.641 0 1 cbr 500 ------- 1 0.1 1.1 141 143
r 0.6418 0 1 cbr 500 ------- 1 0.1 1.1 41 42
+ 0.642 0 1 cbr 500 ------- 1 0.1 1.1 142 144
- 0.642 0 1 cbr 500 ------- 1 0.1 1.1 142 144
r 0.6428 0 1 cbr 500 ------- 1 0.1 1.1 42 43
+ 0.643 0 1 cbr 500 ------- 1 0.1 1.1 143 145
- 0.643 0 1 cbr 500 ------- 1 0.1 1.1 143 145
r 0.6438 0 1 cbr 500 ------- 1 0.1 1.1 43 44
+ 0.644 0 1 cbr 500 ------- 1 0.1 1.1 144 146
- 0.644 0 1 cbr 500 ------- 1 0.1 1.1 144 146
r 0.6448 0 1 cbr 500 ------- 1 0.1 1.1 44 45
+ 0.645 0 1 cbr 500 ------- 1 0.1 1.1 145 147
- 0.645 0 1 cbr 500 ------- 1 0.1 1.1 145 147
r 0.6458 0 1 cbr 500 ------- 1 0.1 1.1 45 46
+ 0.646 0 1 cbr 500 ------- 1 0.1 1.1 146 148
- 0.646 0 1 cbr 500 ------- 1 0.1 1.1 146 148
r 0.6468 0 1 cbr 500 ------- 1 0.1 1.1 46 47
+ 0.647 0 1 cbr 500 ------- 1 0.1 1.1 147 149
- 0.647 0 1 cbr 500 ------- 1 0.1 1.1 147 149
r 0.6478 0 1 cbr 500 ------- 1 0.1 1.1 47 48
+ 0.648 0 1 cbr 500 ------- 1 0.1 1.1 148 150
- 0.648 0 1 cbr 500 ------- 1 0.1 1.1 148 150
r 0.6488 0 1 cbr 500 ------- 1 0.1 1.1 48 49
+ 0.649 0 1 cbr 500 ------- 1 0.1 1.1 149 151
- 0.649 0 1 cbr 500 ------- 1 0.1 1.1 149 151
r 0.6498 0 1 cbr 500 ------- 1 0.1 1.1 49 50
+ 0.65 0 1 cbr 500 ------- 1 0.1 1.1 150 152
- 0.65 0 1 cbr 500 ------- 1 0.1 1.1 150 152
r 0.6508 0 1 cbr 500 ------- 1 0.1 1.1 50 51
+ 0.651 0 1 cbr 500 ------- 1 0.1 1.1 151 153
- 0.651 0 1 cbr 500 ------- 1 0.1 1.1 151 153
r 0.6518 0 1 cbr 500 ------- 1 0.1 1.1 51 52
+ 0.652 0 1 cbr 500 ------- 1 0.1 1.1 152 154
- 0.652 0 1 cbr 500 ------- 1 0.1 1.1 152 154
r 0.6528 0 1 cbr 500 ------- 1 0.1 1.1 52 53
+ 0.653 0 1 cbr 500 ------- 1 0.1 1.1 153 155
- 0.653 0 1 cbr 500 ------- 1 0.1 1.1 153 155
r 0.6538 0 1 cbr 500 ------- 1 0.1 1.1 53 54
+ 0.654 0 1 cbr 500 ------- 1 0.1 1.1 154 156
- 0.654 0 1 cbr 500 ------- 1 0.1 1.1 154 156
r 0.6548 0 1 cbr 500 ------- 1 0.1 1.1 54 55
+ 0.655 0 1 cbr 500 ------- 1 0.1 1.1 155 157
- 0.655 0 1 cbr 500 ------- 1 0.1 1.1 155 157
r 0.6558 0 1 cbr 500 ------- 1 0.1 1.1 55 56
+ 0.656 0 1 cbr 500 ------- 1 0.1 1.1 156 158
- 0.656 0 1 cbr 500 ------- 1 0.1 1.1 156 158
r 0.6568 0 1 cbr 500 ------- 1 0.1 1.1 56 57
+ 0.657 0 1 cbr 500 ------- 1 0.1 1.1 157 159
- 0.657 0 1 cbr 500 ------- 1 0.1 1.1 157 159
r 0.6578 0 1 cbr 500 ------- 1 0.1 1.1 57 58
+ 0.658 0 1 cbr 500 ------- 1 0.1 1.1 158 160
- 0.658 0 1 cbr 500 ------- 1 0.1 1.1 158 160
r 0.6588 0 1 cbr 500 ------- 1 0.1 1.1 58 59
+ 0.659 0 1 cbr 500 ------- 1 0.1 1.1 159 161
- 0.659 0 1 cbr 500 ------- 1 0.1 1.1 159 161
r 0.6598 0 1 cbr 500 ------- 1 0.1 1.1 59 60
+ 0.66 0 1 cbr 500 ------- 1 0.1 1.1 160 162
- 0.66 0 1 cbr 500 ------- 1 0.1 1.1 160 162
r 0.6608 0 1 cbr 500 ------- 1 0.1 1.1 60 61
+ 0.661 0 1 cbr 500 ------- 1 0.1 1.1 161 163
- 0.661 0 1 cbr 500 ------- 1 0.1 1.1 161 163
r 0.6618 0 1 cbr 500 ------- 1 0.1 1.1 61 62
+ 0.662 0 1 cbr 500 ------- 1 0.1 1.1 162 164
- 0.662 0 1 cbr 500 ------- 1 0.1 1.1 162 164
r 0.6628 0 1 cbr 500 ------- 1 0.1 1.1 62 63
+ 0.663 0 1 cbr 500 ------- 1 0.1 1.1 163 165
- 0.663 0 1 cbr 500 ------- 1 0.1 1.1 163 165
r 0.6638 0 1 cbr 500 ------- 1 0.1 1.1 63 64
+ 0.664 0 1 cbr 500 ------- 1 0.1 1.1 164 166
- 0.664 0 1 cbr 500 ------- 1 0.1 1.1 164 166
r 0.6648 0 1 cbr 500 ------- 1 0.1 1.1 64 65
+ 0.665 0 1 cbr 500 ------- 1 0.1 1.1 165 167
- 0.665 0 1 cbr 500 ------- 1 0.1 1.1 165 167
r 0.6658 0 1 cbr 500 ------- 1 0.1 1.1 65 66
+ 0.666 0 1 cbr 500 ------- 1 0.1 1.1 166 168
- 0.666 0 1 cbr 500 ------- 1 0.1 1.1 166 168
r 0.6668 0 1 cbr 500 ------- 1 0.1 1.1 66 67
+ 0.667 0 1 cbr 500 ------- 1 0.1 1.1 167 169
- 0.667 0 1 cbr 500 ------- 1 0.1 1.1 167 169
r 0.6678 0 1 cbr 500 ------- 1 0.1 1.1 67 68
+ 0.668 0 1 cbr 500 ------- 1 0.1 1.1 168 170
- 0.668 0 1 cbr 500 ------- 1 0.1 1.1 168 170
r 0.6688 0 1 cbr 500 ------- 1 0.1 1.1 68 69
+ 0.669 0 1 cbr 500 ------- 1 0.1 1.1 169 171
- 0.669 0 1 cbr 500 ------- 1 0.1 1.1 169 171
r 0.6698 0 1 cbr 500 ------- 1 0.1 1.1 69 70
+ 0.67 0 1 cbr 500 ------- 1 0.1 1.1 170 172
- 0.67 0 1 cbr 500 ------- 1 0.1 1.1 170 172
r 0.6708 0 1 cbr 500 ------- 1 0.1 1.1 70 71
+ 0.671 0 1 cbr 500 ------- 1 0.1 1.1 171 173
- 0.671 0 1 cbr 500 ------- 1 0.1 1.1 171 173
r 0.6718 0 1 cbr 500 ------- 1 0.1 1.1 71 72
+ 0.672 0 1 cbr 500 ------- 1 0.1 1.1 172 174
- 0.672 0 1 cbr 500 ------- 1 0.1 1.1 172 174
r 0.6728 0 1 cbr 500 ------- 1 0.1 1.1 72 73
+ 0.673 0 1 cbr 500 ------- 1 0.1 1.1 173 175
- 0.673 0 1 cbr 500 ------- 1 0.1 1.1 173 175
r 0.6738 0 1 cbr 500 ------- 1 0.1 1.1 73 74
+ 0.674 0 1 cbr 500 ------- 1 0.1 1.1 174 176
- 0.674 0 1 cbr 500 ------- 1 0.1 1.1 174 176
r 0.6748 0 1 cbr 500 ------- 1 0.1 1.1 74 75
+ 0.675 0 1 cbr 500 ------- 1 0.1 1.1 175 177
- 0.675 0 1 cbr 500 ------- 1 0.1 1.1 175 177
r 0.6758 0 1 cbr 500 ------- 1 0.1 1.1 75 76
+ 0.676 0 1 cbr 500 ------- 1 0.1 1.1 176 178
- 0.676 0 1 cbr 500 ------- 1 0.1 1.1 176 178
r 0.6768 0 1 cbr 500 ------- 1 0.1 1.1 76 77
+ 0.677 0 1 cbr 500 ------- 1 0.1 1.1 177 179
- 0.677 0 1 cbr 500 ------- 1 0.1 1.1 177 179
r 0.6778 0 1 cbr 500 ------- 1 0.1 1.1 77 78
+ 0.678 0 1 cbr 500 ------- 1 0.1 1.1 178 180
- 0.678 0 1 cbr 500 ------- 1 0.1 1.1 178 180
r 0.6788 0 1 cbr 500 ------- 1 0.1 1.1 78 79
+ 0.679 0 1 cbr 500 ------- 1 0.1 1.1 179 181
- 0.679 0 1 cbr 500 ------- 1 0.1 1.1 179 181
r 0.6798 0 1 cbr 500 ------- 1 0.1 1.1 79 80
+ 0.68 0 1 cbr 500 ------- 1 0.1 1.1 180 182
- 0.68 0 1 cbr 500 ------- 1 0.1 1.1 180 182
r 0.6808 0 1 cbr 500 ------- 1 0.1 1.1 80 81
+ 0.681 0 1 cbr 500 ------- 1 0.1 1.1 181 183
- 0.681 0 1 cbr 500 ------- 1 0.1 1.1 181 183
r 0.6818 0 1 cbr 500 ------- 1 0.1 1.1 81 82
+ 0.682 0 1 cbr 500 ------- 1 0.1 1.1 182 184
- 0.682 0 1 cbr 500 ------- 1 0.1 1.1 182 184
r 0.6828 0 1 cbr 500 ------- 1 0.1 1.1 82 83
+ 0.683 0 1 cbr 500 ------- 1 0.1 1.1 183 185
- 0.683 0 1 cbr 500 ------- 1 0.1 1.1 183 185
r 0.6838 0 1 cbr 500 ------- 1 0.1 1.1 83 84
+ 0.684 0 1 cbr 500 ------- 1 0.1 1.1 184 186
- 0.684 0 1 cbr 500 ------- 1 0.1 1.1 184 186
r 0.6848 0 1 cbr 500 ------- 1 0.1 1.1 84 85
+ 0.685 0 1 cbr 500 ------- 1 0.1 1.1 185 187
- 0.685 0 1 cbr 500 ------- 1 0.1 1.1 185 187
r 0.6858 0 1 cbr 500 ------- 1 0.1 1.1 85 86
+ 0.686 0 1 cbr 500 ------- 1 0.1 1.1 186 188
- 0.686 0 1 cbr 500 ------- 1 0.1 1.1 186 188
r 0.6868 0 1 cbr 500 ------- 1 0.1 1.1 86 87
+ 0.687 0 1 cbr 500 ------- 1 0.1 1.1 187 189
- 0.687 0 1 cbr 500 ------- 1 0.1 1.1 187 189
r 0.6878 0 1 cbr 500 ------- 1 0.1 1.1 87 88
+ 0.688 0 1 cbr 500 ------- 1 0.1 1.1 188 190
- 0.688 0 1 cbr 500 ------- 1 0.1 1.1 188 190
r 0.6888 0 1 cbr 500 ------- 1 0.1 1.1 88 89
+ 0.689 0 1 cbr 500 ------- 1 0.1 1.1 189 191
- 0.689 0 1 cbr 500 ------- 1 0.1 1.1 189 191
r 0.6898 0 1 cbr 500 ------- 1 0.1 1.1 89 90
+ 0.69 0 1 cbr 500 ------- 1 0.1 1.1 190 192
- 0.69 0 1 cbr 500 ------- 1 0.1 1.1 190 192
r 0.6908 0 1 cbr 500 ------- 1 0.1 1.1 90 91
+ 0.691 0 1 cbr 500 ------- 1 0.1 1.1 191 193
- 0.691 0 1 cbr 500 ------- 1 0.1 1.1 191 193
r 0.6918 0 1 cbr 500 ------- 1 0.1 1.1 91 92
+ 0.692 0 1 cbr 500 ------- 1 0.1 1.1 192 194
- 0.692 0 1 cbr 500 ------- 1 0.1 1.1 192 194
r 0.6928 0 1 cbr 500 ------- 1 0.1 1.1 92 93
+ 0.693 0 1 cbr 500 ------- 1 0.1 1.1 193 195
- 0.693 0 1 cbr 500 ------- 1 0.1 1.1 193 195
r 0.6938 0 1 cbr 500 ------- 1 0.1 1.1 93 94
+ 0.694 0 1 cbr 500 ------- 1 0.1 1.1 194 196
- 0.694 0 1 cbr 500 ------- 1 0.1 1.1 194 196
r 0.6948 0 1 cbr 500 ------- 1 0.1 1.1 94 95
+ 0.695 0 1 cbr 500 ------- 1 0.1 1.1 195 197
- 0.695 0 1 cbr 500 ------- 1 0.1 1.1 195 197
r 0.6958 0 1 cbr 500 ------- 1 0.1 1.1 95 96
+ 0.696 0 1 cbr 500 ------- 1 0.1 1.1 196 198
- 0.696 0 1 cbr 500 ------- 1 0.1 1.1 196 198
r 0.6968 0 1 cbr 500 ------- 1 0.1 1.1 96 97
+ 0.697 0 1 cbr 500 ------- 1 0.1 1.1 197 199
- 0.697 0 1 cbr 500 ------- 1 0.1 1.1 197 199
r 0.6978 0 1 cbr 500 ------- 1 0.1 1.1 97 98
+ 0.698 0 1 cbr 500 ------- 1 0.1 1.1 198 200
- 0.698 0 1 cbr 500 ------- 1 0.1 1.1 198 200
r 0.6988 0 1 cbr 500 ------- 1 0.1 1.1 98 99
+ 0.699 0 1 cbr 500 ------- 1 0.1 1.1 199 201
- 0.699 0 1 cbr 500 ------- 1 0.1 1.1 199 201
r 0.6998 0 1 cbr 500 ------- 1 0.1 1.1 99 100
+ 0.7 0 1 cbr 500 ------- 1 0.1 1.1 200 202
- 0.7 0 1 cbr 500 ------- 1 0.1 1.1 200 202
r 0.700128 1 0 ack 40 ------- 0 1.0 0.0 0 102
+ 0.700128 0 1 tcp 1040 ------- 0 0.0 1.0 1 203
+ 0.700128 0 1 tcp 1040 ------- 0 0.0 1.0 2 204
r 0.7008 0 1 cbr 500 ------- 1 0.1 1.1 100 101
- 0.7008 0 1 tcp 1040 ------- 0 0.0 1.0 1 203
+ 0.701 0 1 cbr 500 ------- 1 0.1 1.1 201 205
r 0.7018 0 1 cbr 500 ------- 1 0.1 1.1 101 103
+ 0.702 0 1 cbr 500 ------- 1 0.1 1.1 202 206
- 0.702464 0 1 tcp 1040 ------- 0 0.0 1.0 2 204
r 0.7028 0 1 cbr 500 ------- 1 0.1 1.1 102 104
+ 0.703 0 1 cbr 500 ------- 1 0.1 1.1 203 207
r 0.7038 0 1 cbr 500 ------- 1 0.1 1.1 103 105
+ 0.704 0 1 cbr 500 ------- 1 0.1 1.1 204 208
- 0.704128 0 1 cbr 500 ------- 1 0.1 1.1 201 205
r 0.7048 0 1 cbr 500 ------- 1 0.1 1.1 104 106
- 0.704928 0 1 cbr 500 ------- 1 0.1 1.1 202 206
+ 0.705 0 1 cbr 500 ------- 1 0.1 1.1 205 209
- 0.705728 0 1 cbr 500 ------- 1 0.1 1.1 203 207
r 0.7058 0 1 cbr 500 ------- 1 0.1 1.1 105 107
+ 0.706 0 1 cbr 500 ------- 1 0.1 1.1 206 210
- 0.706528 0 1 cbr 500 ------- 1 0.1 1.1 204 208
r 0.7068 0 1 cbr 500 ------- 1 0.1 1.1 106 108
+ 0.707 0 1 cbr 500 ------- 1 0.1 1.1 207 211
- 0.707328 0 1 cbr 500 ------- 1 0.1 1.1 205 209
r 0.7078 0 1 cbr 500 ------- 1 0.1 1.1 107 109
+ 0.708 0 1 cbr 500 ------- 1 0.1 1.1 208 212
- 0.708128 0 1 cbr 500 ------- 1 0.1 1.1 206 210
r 0.7088 0 1 cbr 500 ------- 1 0.1 1.1 108 110
- 0.708928 0 1 cbr 500 ------- 1 0.1 1.1 207 211
+ 0.709 0 1 cbr 500 ------- 1 0.1 1.1 209 213
- 0.709728 0 1 cbr 500 ------- 1 0.1 1.1 208 212
r 0.7098 0 1 cbr 500 ------- 1 0.1 1.1 109 111
+ 0.71 0 1 cbr 500 ------- 1 0.1 1.1 210 214
- 0.710528 0 1 cbr 500 ------- 1 0.1 1.1 209 213
r 0.7108 0 1 cbr 500 ------- 1 0.1 1.1 110 112
+ 0.711 0 1 cbr 500 ------- 1 0.1 1.1 211 215
- 0.711328 0 1 cbr 500 ------- 1 0.1 1.1 210 214
r 0.7118 0 1 cbr 500 ------- 1 0.1 1.1 111 113
+ 0.712 0 1 cbr 500 ------- 1 0.1 1.1 212 216
- 0.712128 0 1 cbr 500 ------- 1 0.1 1.1 211 215
r 0.7128 0 1 cbr 500 ------- 1 0.1 1.1 112 114
- 0.712928 0 1 cbr 500 ------- 1 0.1 1.1 212 216
+ 0.713 0 1 cbr 500 ------- 1 0.1 1.1 213 217
- 0.713728 0 1 cbr 500 ------- 1 0.1 1.1 213 217
r 0.7138 0 1 cbr 500 ------- 1 0.1 1.1 113 115
+ 0.714 0 1 cbr 500 ------- 1 0.1 1.1 214 218
- 0.714528 0 1 cbr 500 ------- 1 0.1 1.1 214 218
r 0.7148 0 1 cbr 500 ------- 1 0.1 1.1 114 116
+ 0.715 0 1 cbr 500 ------- 1 0.1 1.1 215 219
- 0.715328 0 1 cbr 500 ------- 1 0.1 1.1 215 219
r 0.7158 0 1 cbr 500 ------- 1 0.1 1.1 115 117
+ 0.716 0 1 cbr 500 ------- 1 0.1 1.1 216 220
- 0.716128 0 1 cbr 500 ------- 1 0.1 1.1 216 220
r 0.7168 0 1 cbr 500 ------- 1 0.1 1.1 116 118
+ 0.717 0 1 cbr 500 ------- 1 0.1 1.1 217 221
- 0.717 0 1 cbr 500 ------- 1 0.1 1.1 217 221
r 0.7178 0 1 cbr 500 ------- 1 0.1 1.1 117 119
+ 0.718 0 1 cbr 500 ------- 1 0.1 1.1 218 222
- 0.718 0 1 cbr 500 ------- 1 0.1 1.1 218 222
r 0.7188 0 1 cbr 500 ------- 1 0.1 1.1 118 120
+ 0.719 0 1 cbr 500 ------- 1 0.1 1.1 219 223
- 0.719 0 1 cbr 500 ------- 1 0.1 1.1 219 223
r 0.7198 0 1 cbr 500 ------- 1 0.1 1.1 119 121
+ 0.72 0 1 cbr 500 ------- 1 0.1 1.1 220 224
- 0.72 0 1 cbr 500 ------- 1 0.1 1.1 220 224
r 0.7208 0 1 cbr 500 ------- 1 0.1 1.1 120 122
+ 0.721 0 1 cbr 500 ------- 1 0.1 1.1 221 225
- 0.721 0 1 cbr 500 ------- 1 0.1 1.1 221 225
r 0.7218 0 1 cbr 500 ------- 1 0.1 1.1 121 123
+ 0.722 0 1 cbr 500 ------- 1 0.1 1.1 222 226
- 0.722 0 1 cbr 500 ------- 1 0.1 1.1 222 226
r 0.7228 0 1 cbr 500 ------- 1 0.1 1.1 122 124
+ 0.723 0 1 cbr 500 ------- 1 0.1 1.1 223 227
- 0.723 0 1 cbr 500 ------- 1 0.1 1.1 223 227
r 0.7238 0 1 cbr 500 ------- 1 0.1 1.1 123 125
+ 0.724 0 1 cbr 500 ------- 1 0.1 1.1 224 228
- 0.724 0 1 cbr 500 ------- 1 0.1 1.1 224 228
r 0.7248 0 1 cbr 500 ------- 1 0.1 1.1 124 126
+ 0.725 0 1 cbr 500 ------- 1 0.1 1.1 225 229
- 0.725 0 1 cbr 500 ------- 1 0.1 1.1 225 229
r 0.7258 0 1 cbr 500 ------- 1 0.1 1.1 125 127
+ 0.726 0 1 cbr 500 ------- 1 0.1 1.1 226 230
- 0.726 0 1 cbr 500 ------- 1 0.1 1.1 226 230
r 0.7268 0 1 cbr 500 ------- 1 0.1 1.1 126 128
+ 0.727 0 1 cbr 500 ------- 1 0.1 1.1 227 231
- 0.727 0 1 cbr 500 ------- 1 0.1 1.1 227 231
r 0.7278 0 1 cbr 500 ------- 1 0.1 1.1 127 129
+ 0.728 0 1 cbr 500 ------- 1 0.1 1.1 228 232
- 0.728 0 1 cbr 500 ------- 1 0.1 1.1 228 232
r 0.7288 0 1 cbr 500 ------- 1 0.1 1.1 128 130
+ 0.729 0 1 cbr 500 ------- 1 0.1 1.1 229 233
- 0.729 0 1 cbr 500 ------- 1 0.1 1.1 229 233
r 0.7298 0 1 cbr 500 ------- 1 0.1 1.1 129 131
+ 0.73 0 1 cbr 500 ------- 1 0.1 1.1 230 234
- 0.73 0 1 cbr 500 ------- 1 0.1 1.1 230 234
r 0.7308 0 1 cbr 500 ------- 1 0.1 1.1 130 132
+ 0.731 0 1 cbr 500 ------- 1 0.1 1.1 231 235
- 0.731 0 1 cbr 500 ------- 1 0.1 1.1 231 235
r 0.7318 0 1 cbr 500 ------- 1 0.1 1.1 131 133
+ 0.732 0 1 cbr 500 ------- 1 0.1 1.1 232 236
- 0.732 0 1 cbr 500 ------- 1 0.1 1.1 232 236
r 0.7328 0 1 cbr 500 ------- 1 0.1 1.1 132 134
+ 0.733 0 1 cbr 500 ------- 1 0.1 1.1 233 237
- 0.733 0 1 cbr 500 ------- 1 0.1 1.1 233 237
r 0.7338 0 1 cbr 500 ------- 1 0.1 1.1 133 135
+ 0.734 0 1 cbr 500 ------- 1 0.1 1.1 234 238
- 0.734 0 1 cbr 500 ------- 1 0.1 1.1 234 238
r 0.7348 0 1 cbr 500 ------- 1 0.1 1.1 134 136
+ 0.735 0 1 cbr 500 ------- 1 0.1 1.1 235 239
- 0.735 0 1 cbr 500 ------- 1 0.1 1.1 235 239
r 0.7358 0 1 cbr 500 ------- 1 0.1 1.1 135 137
+ 0.736 0 1 cbr 500 ------- 1 0.1 1.1 236 240
- 0.736 0 1 cbr 500 ------- 1 0.1 1.1 236 240
r 0.7368 0 1 cbr 500 ------- 1 0.1 1.1 136 138
+ 0.737 0 1 cbr 500 ------- 1 0.1 1.1 237 241
- 0.737 0 1 cbr 500 ------- 1 0.1 1.1 237 241
r 0.7378 0 1 cbr 500 ------- 1 0.1 1.1 137 139
+ 0.738 0 1 cbr 500 ------- 1 0.1 1.1 238 242
- 0.738 0 1 cbr 500 ------- 1 0.1 1.1 238 242
r 0.7388 0 1 cbr 500 ------- 1 0.1 1.1 138 140
+ 0.739 0 1 cbr 500 ------- 1 0.1 1.1 239 243
- 0.739 0 1 cbr 500 ------- 1 0.1 1.1 239 243
r 0.7398 0 1 cbr 500 ------- 1 0.1 1.1 139 141
+ 0.74 0 1 cbr 500 ------- 1 0.1 1.1 240 244
- 0.74 0 1 cbr 500 ------- 1 0.1 1.1 240 244
r 0.7408 0 1 cbr 500 ------- 1 0.1 1.1 140 142
+ 0.741 0 1 cbr 500 ------- 1 0.1 1.1 241 245
- 0.741 0 1 cbr 500 ------- 1 0.1 1.1 241 245
r 0.7418 0 1 cbr 500 ------- 1 0.1 1.1 141 143
+ 0.742 0 1 cbr 500 ------- 1 0.1 1.1 242 246
- 0.742 0 1 cbr 500 ------- 1 0.1 1.1 242 246
r 0.7428 0 1 cbr 500 ------- 1 0.1 1.1 142 144
+ 0.743 0 1 cbr 500 ------- 1 0.1 1.1 243 247
- 0.743 0 1 cbr 500 ------- 1 0.1 1.1 243 247
r 0.7438 0 1 cbr 500 ------- 1 0.1 1.1 143 145
+ 0.744 0 1 cbr 500 ------- 1 0.1 1.1 244 248
- 0.744 0 1 cbr 500 ------- 1 0.1 1.1 244 248
r 0.7448 0 1 cbr 500 ------- 1 0.1 1.1 144 146
+ 0.745 0 1 cbr 500 ------- 1 0.1 1.1 245 249
- 0.745 0 1 cbr 500 ------- 1 0.1 1.1 245 249
r 0.7458 0 1 cbr 500 ------- 1 0.1 1.1 145 147
+ 0.746 0 1 cbr 500 ------- 1 0.1 1.1 246 250
- 0.746 0 1 cbr 500 ------- 1 0.1 1.1 246 250
r 0.7468 0 1 cbr 500 ------- 1 0.1 1.1 146 148
+ 0.747 0 1 cbr 500 ------- 1 0.1 1.1 247 251
- 0.747 0 1 cbr 500 ------- 1 0.1 1.1 247 251
r 0.7478 0 1 cbr 500 ------- 1 0.1 1.1 147 149
+ 0.748 0 1 cbr 500 ------- 1 0.1 1.1 248 252
- 0.748 0 1 cbr 500 ------- 1 0.1 1.1 248 252
r 0.7488 0 1 cbr 500 ------- 1 0.1 1.1 148 150
+ 0.749 0 1 cbr 500 ------- 1 0.1 1.1 249 253
- 0.749 0 1 cbr 500 ------- 1 0.1 1.1 249 253
r 0.7498 0 1 cbr 500 ------- 1 0.1 1.1 149 151
+ 0.75 0 1 cbr 500 ------- 1 0.1 1.1 250 254
- 0.75 0 1 cbr 500 ------- 1 0.1 1.1 250 254
r 0.7508 0 1 cbr 500 ------- 1 0.1 1.1 150 152